+ 0.505549 1 2 tcp 40 ------- 1 0.0 3.0 0 0 0 0x0 0 0
- 0.505549 1 2 tcp 40 ------- 1 0.0 3.0 0 0 0 0x0 0 0
r 0.506552 1 2 tcp 40 ------- 1 0.0 3.0 0 0 0 0x0 0 0
+ 0.60504 2 1 ack 40 ------- 1 3.0 0.0 0 1 0 0x0 0 0
- 0.60504 2 1 ack 40 ------- 1 3.0 0.0 0 1 0 0x0 0 0
r 0.606043 2 1 ack 40 ------- 1 3.0 0.0 0 1 0 0x0 0 0
+ 0.617222 1 2 tcp 1040 ------- 1 0.0 3.0 1 2 0 0x0 0 0
- 0.617222 1 2 tcp 1040 ------- 1 0.0 3.0 1 2 0 0x0 0 0
+ 0.617305 1 2 tcp 1040 ------- 1 0.0 3.0 2 3 0 0x0 0 0
- 0.617305 1 2 tcp 1040 ------- 1 0.0 3.0 2 3 0 0x0 0 0
r 0.618305 1 2 tcp 1040 ------- 1 0.0 3.0 1 2 0 0x0 0 0
r 0.618388 1 2 tcp 1040 ------- 1 0.0 3.0 2 3 0 0x0 0 0
+ 0.716872 2 1 ack 40 ------- 1 3.0 0.0 1 4 0 0x0 0 0
- 0.716872 2 1 ack 40 ------- 1 3.0 0.0 1 4 0 0x0 0 0
+ 0.71749 2 1 ack 40 ------- 1 3.0 0.0 2 5 0 0x0 0 0
- 0.71749 2 1 ack 40 ------- 1 3.0 0.0 2 5 0 0x0 0 0
r 0.717876 2 1 ack 40 ------- 1 3.0 0.0 1 4 0 0x0 0 0
r 0.718493 2 1 ack 40 ------- 1 3.0 0.0 2 5 0 0x0 0 0
+ 0.729054 1 2 tcp 1040 ------- 1 0.0 3.0 3 6 0 0x0 0 0
- 0.729054 1 2 tcp 1040 ------- 1 0.0 3.0 3 6 0 0x0 0 0
+ 0.729137 1 2 tcp 1040 ------- 1 0.0 3.0 4 7 0 0x0 0 0
- 0.729137 1 2 tcp 1040 ------- 1 0.0 3.0 4 7 0 0x0 0 0
+ 0.729672 1 2 tcp 1040 ------- 1 0.0 3.0 5 8 0 0x0 0 0
- 0.729672 1 2 tcp 1040 ------- 1 0.0 3.0 5 8 0 0x0 0 0
+ 0.729755 1 2 tcp 1040 ------- 1 0.0 3.0 6 9 0 0x0 0 0
- 0.729755 1 2 tcp 1040 ------- 1 0.0 3.0 6 9 0 0x0 0 0
r 0.730137 1 2 tcp 1040 ------- 1 0.0 3.0 3 6 0 0x0 0 0
r 0.73022 1 2 tcp 1040 ------- 1 0.0 3.0 4 7 0 0x0 0 0
r 0.730755 1 2 tcp 1040 ------- 1 0.0 3.0 5 8 0 0x0 0 0
r 0.730838 1 2 tcp 1040 ------- 1 0.0 3.0 6 9 0 0x0 0 0
+ 0.828705 2 1 ack 40 ------- 1 3.0 0.0 3 10 0 0x0 0 0
- 0.828705 2 1 ack 40 ------- 1 3.0 0.0 3 10 0 0x0 0 0
+ 0.829323 2 1 ack 40 ------- 1 3.0 0.0 4 11 0 0x0 0 0
- 0.829323 2 1 ack 40 ------- 1 3.0 0.0 4 11 0 0x0 0 0
r 0.829708 2 1 ack 40 ------- 1 3.0 0.0 3 10 0 0x0 0 0
+ 0.82994 2 1 ack 40 ------- 1 3.0 0.0 5 12 0 0x0 0 0
- 0.82994 2 1 ack 40 ------- 1 3.0 0.0 5 12 0 0x0 0 0
r 0.830326 2 1 ack 40 ------- 1 3.0 0.0 4 11 0 0x0 0 0
+ 0.830558 2 1 ack 40 ------- 1 3.0 0.0 6 13 0 0x0 0 0
- 0.830558 2 1 ack 40 ------- 1 3.0 0.0 6 13 0 0x0 0 0
r 0.830944 2 1 ack 40 ------- 1 3.0 0.0 5 12 0 0x0 0 0
r 0.831561 2 1 ack 40 ------- 1 3.0 0.0 6 13 0 0x0 0 0
+ 0.840886 1 2 tcp 1040 ------- 1 0.0 3.0 7 14 0 0x0 0 0
- 0.840886 1 2 tcp 1040 ------- 1 0.0 3.0 7 14 0 0x0 0 0
+ 0.84097 1 2 tcp 1040 ------- 1 0.0 3.0 8 15 0 0x0 0 0
- 0.84097 1 2 tcp 1040 ------- 1 0.0 3.0 8 15 0 0x0 0 0
+ 0.841504 1 2 tcp 1040 ------- 1 0.0 3.0 9 16 0 0x0 0 0
- 0.841504 1 2 tcp 1040 ------- 1 0.0 3.0 9 16 0 0x0 0 0
+ 0.841587 1 2 tcp 1040 ------- 1 0.0 3.0 10 17 0 0x0 0 0
- 0.841587 1 2 tcp 1040 ------- 1 0.0 3.0 10 17 0 0x0 0 0
r 0.84197 1 2 tcp 1040 ------- 1 0.0 3.0 7 14 0 0x0 0 0
r 0.842053 1 2 tcp 1040 ------- 1 0.0 3.0 8 15 0 0x0 0 0
+ 0.842122 1 2 tcp 1040 ------- 1 0.0 3.0 11 18 0 0x0 0 0
- 0.842122 1 2 tcp 1040 ------- 1 0.0 3.0 11 18 0 0x0 0 0
+ 0.842205 1 2 tcp 1040 ------- 1 0.0 3.0 12 19 0 0x0 0 0
- 0.842205 1 2 tcp 1040 ------- 1 0.0 3.0 12 19 0 0x0 0 0
r 0.842587 1 2 tcp 1040 ------- 1 0.0 3.0 9 16 0 0x0 0 0
r 0.842671 1 2 tcp 1040 ------- 1 0.0 3.0 10 17 0 0x0 0 0
+ 0.84274 1 2 tcp 1040 ------- 1 0.0 3.0 13 20 0 0x0 0 0
- 0.84274 1 2 tcp 1040 ------- 1 0.0 3.0 13 20 0 0x0 0 0
+ 0.842823 1 2 tcp 1040 ------- 1 0.0 3.0 14 21 0 0x0 0 0
- 0.842823 1 2 tcp 1040 ------- 1 0.0 3.0 14 21 0 0x0 0 0
r 0.843205 1 2 tcp 1040 ------- 1 0.0 3.0 11 18 0 0x0 0 0
r 0.843288 1 2 tcp 1040 ------- 1 0.0 3.0 12 19 0 0x0 0 0
r 0.843823 1 2 tcp 1040 ------- 1 0.0 3.0 13 20 0 0x0 0 0
r 0.843906 1 2 tcp 1040 ------- 1 0.0 3.0 14 21 0 0x0 0 0
+ 0.940537 2 1 ack 40 ------- 1 3.0 0.0 7 22 0 0x0 0 0
- 0.940537 2 1 ack 40 ------- 1 3.0 0.0 7 22 0 0x0 0 0
+ 0.941155 2 1 ack 40 ------- 1 3.0 0.0 8 23 0 0x0 0 0
- 0.941155 2 1 ack 40 ------- 1 3.0 0.0 8 23 0 0x0 0 0
r 0.941541 2 1 ack 40 ------- 1 3.0 0.0 7 22 0 0x0 0 0
+ 0.941773 2 1 ack 40 ------- 1 3.0 0.0 9 24 0 0x0 0 0
- 0.941773 2 1 ack 40 ------- 1 3.0 0.0 9 24 0 0x0 0 0
r 0.942158 2 1 ack 40 ------- 1 3.0 0.0 8 23 0 0x0 0 0
+ 0.942391 2 1 ack 40 ------- 1 3.0 0.0 10 25 0 0x0 0 0
- 0.942391 2 1 ack 40 ------- 1 3.0 0.0 10 25 0 0x0 0 0
r 0.942776 2 1 ack 40 ------- 1 3.0 0.0 9 24 0 0x0 0 0
+ 0.943008 2 1 ack 40 ------- 1 3.0 0.0 11 26 0 0x0 0 0
- 0.943008 2 1 ack 40 ------- 1 3.0 0.0 11 26 0 0x0 0 0
r 0.943394 2 1 ack 40 ------- 1 3.0 0.0 10 25 0 0x0 0 0
+ 0.943626 2 1 ack 40 ------- 1 3.0 0.0 12 27 0 0x0 0 0
- 0.943626 2 1 ack 40 ------- 1 3.0 0.0 12 27 0 0x0 0 0
r 0.944011 2 1 ack 40 ------- 1 3.0 0.0 11 26 0 0x0 0 0
+ 0.944244 2 1 ack 40 ------- 1 3.0 0.0 13 28 0 0x0 0 0
- 0.944244 2 1 ack 40 ------- 1 3.0 0.0 13 28 0 0x0 0 0
r 0.944629 2 1 ack 40 ------- 1 3.0 0.0 12 27 0 0x0 0 0
+ 0.944861 2 1 ack 40 ------- 1 3.0 0.0 14 29 0 0x0 0 0
- 0.944861 2 1 ack 40 ------- 1 3.0 0.0 14 29 0 0x0 0 0
r 0.945247 2 1 ack 40 ------- 1 3.0 0.0 13 28 0 0x0 0 0
r 0.945865 2 1 ack 40 ------- 1 3.0 0.0 14 29 0 0x0 0 0
+ 0.952719 1 2 tcp 1040 ------- 1 0.0 3.0 15 30 0 0x0 0 0
- 0.952719 1 2 tcp 1040 ------- 1 0.0 3.0 15 30 0 0x0 0 0
+ 0.952802 1 2 tcp 1040 ------- 1 0.0 3.0 16 31 0 0x0 0 0
- 0.952802 1 2 tcp 1040 ------- 1 0.0 3.0 16 31 0 0x0 0 0
+ 0.953337 1 2 tcp 1040 ------- 1 0.0 3.0 17 32 0 0x0 0 0
- 0.953337 1 2 tcp 1040 ------- 1 0.0 3.0 17 32 0 0x0 0 0
+ 0.95342 1 2 tcp 1040 ------- 1 0.0 3.0 18 33 0 0x0 0 0
- 0.95342 1 2 tcp 1040 ------- 1 0.0 3.0 18 33 0 0x0 0 0
r 0.953802 1 2 tcp 1040 ------- 1 0.0 3.0 15 30 0 0x0 0 0
r 0.953885 1 2 tcp 1040 ------- 1 0.0 3.0 16 31 0 0x0 0 0
+ 0.953954 1 2 tcp 1040 ------- 1 0.0 3.0 19 34 0 0x0 0 0
- 0.953954 1 2 tcp 1040 ------- 1 0.0 3.0 19 34 0 0x0 0 0
+ 0.954037 1 2 tcp 1040 ------- 1 0.0 3.0 20 35 0 0x0 0 0
- 0.954037 1 2 tcp 1040 ------- 1 0.0 3.0 20 35 0 0x0 0 0
r 0.95442 1 2 tcp 1040 ------- 1 0.0 3.0 17 32 0 0x0 0 0
r 0.954503 1 2 tcp 1040 ------- 1 0.0 3.0 18 33 0 0x0 0 0
+ 0.954572 1 2 tcp 1040 ------- 1 0.0 3.0 21 36 0 0x0 0 0
- 0.954572 1 2 tcp 1040 ------- 1 0.0 3.0 21 36 0 0x0 0 0
+ 0.954655 1 2 tcp 1040 ------- 1 0.0 3.0 22 37 0 0x0 0 0
- 0.954655 1 2 tcp 1040 ------- 1 0.0 3.0 22 37 0 0x0 0 0
r 0.955037 1 2 tcp 1040 ------- 1 0.0 3.0 19 34 0 0x0 0 0
r 0.955121 1 2 tcp 1040 ------- 1 0.0 3.0 20 35 0 0x0 0 0
+ 0.95519 1 2 tcp 1040 ------- 1 0.0 3.0 23 38 0 0x0 0 0
- 0.95519 1 2 tcp 1040 ------- 1 0.0 3.0 23 38 0 0x0 0 0
+ 0.955273 1 2 tcp 1040 ------- 1 0.0 3.0 24 39 0 0x0 0 0
- 0.955273 1 2 tcp 1040 ------- 1 0.0 3.0 24 39 0 0x0 0 0
r 0.955655 1 2 tcp 1040 ------- 1 0.0 3.0 21 36 0 0x0 0 0
r 0.955738 1 2 tcp 1040 ------- 1 0.0 3.0 22 37 0 0x0 0 0
+ 0.955807 1 2 tcp 1040 ------- 1 0.0 3.0 25 40 0 0x0 0 0
- 0.955807 1 2 tcp 1040 ------- 1 0.0 3.0 25 40 0 0x0 0 0
+ 0.955891 1 2 tcp 1040 ------- 1 0.0 3.0 26 41 0 0x0 0 0
- 0.955891 1 2 tcp 1040 ------- 1 0.0 3.0 26 41 0 0x0 0 0
r 0.956273 1 2 tcp 1040 ------- 1 0.0 3.0 23 38 0 0x0 0 0
r 0.956356 1 2 tcp 1040 ------- 1 0.0 3.0 24 39 0 0x0 0 0
+ 0.956425 1 2 tcp 1040 ------- 1 0.0 3.0 27 42 0 0x0 0 0
- 0.956425 1 2 tcp 1040 ------- 1 0.0 3.0 27 42 0 0x0 0 0
+ 0.956508 1 2 tcp 1040 ------- 1 0.0 3.0 28 43 0 0x0 0 0
- 0.956508 1 2 tcp 1040 ------- 1 0.0 3.0 28 43 0 0x0 0 0
r 0.956891 1 2 tcp 1040 ------- 1 0.0 3.0 25 40 0 0x0 0 0
r 0.956974 1 2 tcp 1040 ------- 1 0.0 3.0 26 41 0 0x0 0 0
+ 0.957043 1 2 tcp 1040 ------- 1 0.0 3.0 29 44 0 0x0 0 0
- 0.957043 1 2 tcp 1040 ------- 1 0.0 3.0 29 44 0 0x0 0 0
+ 0.957126 1 2 tcp 1040 ------- 1 0.0 3.0 30 45 0 0x0 0 0
- 0.957126 1 2 tcp 1040 ------- 1 0.0 3.0 30 45 0 0x0 0 0
r 0.957508 1 2 tcp 1040 ------- 1 0.0 3.0 27 42 0 0x0 0 0
r 0.957592 1 2 tcp 1040 ------- 1 0.0 3.0 28 43 0 0x0 0 0
r 0.958126 1 2 tcp 1040 ------- 1 0.0 3.0 29 44 0 0x0 0 0
r 0.958209 1 2 tcp 1040 ------- 1 0.0 3.0 30 45 0 0x0 0 0
+ 1.05237 2 1 ack 40 ------- 1 3.0 0.0 15 46 0 0x0 0 0
- 1.05237 2 1 ack 40 ------- 1 3.0 0.0 15 46 0 0x0 0 0
+ 1.052987 2 1 ack 40 ------- 1 3.0 0.0 16 47 0 0x0 0 0
- 1.052987 2 1 ack 40 ------- 1 3.0 0.0 16 47 0 0x0 0 0
r 1.053373 2 1 ack 40 ------- 1 3.0 0.0 15 46 0 0x0 0 0
+ 1.053605 2 1 ack 40 ------- 1 3.0 0.0 17 48 0 0x0 0 0
- 1.053605 2 1 ack 40 ------- 1 3.0 0.0 17 48 0 0x0 0 0
r 1.053991 2 1 ack 40 ------- 1 3.0 0.0 16 47 0 0x0 0 0
+ 1.054223 2 1 ack 40 ------- 1 3.0 0.0 18 49 0 0x0 0 0
- 1.054223 2 1 ack 40 ------- 1 3.0 0.0 18 49 0 0x0 0 0
r 1.054608 2 1 ack 40 ------- 1 3.0 0.0 17 48 0 0x0 0 0
+ 1.054841 2 1 ack 40 ------- 1 3.0 0.0 19 50 0 0x0 0 0
- 1.054841 2 1 ack 40 ------- 1 3.0 0.0 19 50 0 0x0 0 0
r 1.055226 2 1 ack 40 ------- 1 3.0 0.0 18 49 0 0x0 0 0
+ 1.055458 2 1 ack 40 ------- 1 3.0 0.0 20 51 0 0x0 0 0
- 1.055458 2 1 ack 40 ------- 1 3.0 0.0 20 51 0 0x0 0 0
r 1.055844 2 1 ack 40 ------- 1 3.0 0.0 19 50 0 0x0 0 0
+ 1.056076 2 1 ack 40 ------- 1 3.0 0.0 21 52 0 0x0 0 0
- 1.056076 2 1 ack 40 ------- 1 3.0 0.0 21 52 0 0x0 0 0
r 1.056462 2 1 ack 40 ------- 1 3.0 0.0 20 51 0 0x0 0 0
+ 1.056694 2 1 ack 40 ------- 1 3.0 0.0 22 53 0 0x0 0 0
- 1.056694 2 1 ack 40 ------- 1 3.0 0.0 22 53 0 0x0 0 0
r 1.057079 2 1 ack 40 ------- 1 3.0 0.0 21 52 0 0x0 0 0
+ 1.057312 2 1 ack 40 ------- 1 3.0 0.0 23 54 0 0x0 0 0
- 1.057312 2 1 ack 40 ------- 1 3.0 0.0 23 54 0 0x0 0 0
r 1.057697 2 1 ack 40 ------- 1 3.0 0.0 22 53 0 0x0 0 0
+ 1.057929 2 1 ack 40 ------- 1 3.0 0.0 24 55 0 0x0 0 0
- 1.057929 2 1 ack 40 ------- 1 3.0 0.0 24 55 0 0x0 0 0
r 1.058315 2 1 ack 40 ------- 1 3.0 0.0 23 54 0 0x0 0 0
+ 1.058547 2 1 ack 40 ------- 1 3.0 0.0 25 56 0 0x0 0 0
- 1.058547 2 1 ack 40 ------- 1 3.0 0.0 25 56 0 0x0 0 0
r 1.058933 2 1 ack 40 ------- 1 3.0 0.0 24 55 0 0x0 0 0
+ 1.059165 2 1 ack 40 ------- 1 3.0 0.0 26 57 0 0x0 0 0
- 1.059165 2 1 ack 40 ------- 1 3.0 0.0 26 57 0 0x0 0 0
r 1.05955 2 1 ack 40 ------- 1 3.0 0.0 25 56 0 0x0 0 0
+ 1.059783 2 1 ack 40 ------- 1 3.0 0.0 27 58 0 0x0 0 0
- 1.059783 2 1 ack 40 ------- 1 3.0 0.0 27 58 0 0x0 0 0
r 1.060168 2 1 ack 40 ------- 1 3.0 0.0 26 57 0 0x0 0 0
+ 1.0604 2 1 ack 40 ------- 1 3.0 0.0 28 59 0 0x0 0 0
- 1.0604 2 1 ack 40 ------- 1 3.0 0.0 28 59 0 0x0 0 0
r 1.060786 2 1 ack 40 ------- 1 3.0 0.0 27 58 0 0x0 0 0
+ 1.061018 2 1 ack 40 ------- 1 3.0 0.0 29 60 0 0x0 0 0
- 1.061018 2 1 ack 40 ------- 1 3.0 0.0 29 60 0 0x0 0 0
r 1.061404 2 1 ack 40 ------- 1 3.0 0.0 28 59 0 0x0 0 0
+ 1.061636 2 1 ack 40 ------- 1 3.0 0.0 30 61 0 0x0 0 0
- 1.061636 2 1 ack 40 ------- 1 3.0 0.0 30 61 0 0x0 0 0
r 1.062021 2 1 ack 40 ------- 1 3.0 0.0 29 60 0 0x0 0 0
r 1.062639 2 1 ack 40 ------- 1 3.0 0.0 30 61 0 0x0 0 0
+ 1.064551 1 2 tcp 1040 ------- 1 0.0 3.0 31 62 0 0x0 0 0
- 1.064551 1 2 tcp 1040 ------- 1 0.0 3.0 31 62 0 0x0 0 0
+ 1.064634 1 2 tcp 1040 ------- 1 0.0 3.0 32 63 0 0x0 0 0
- 1.064634 1 2 tcp 1040 ------- 1 0.0 3.0 32 63 0 0x0 0 0
+ 1.065169 1 2 tcp 1040 ------- 1 0.0 3.0 33 64 0 0x0 0 0
- 1.065169 1 2 tcp 1040 ------- 1 0.0 3.0 33 64 0 0x0 0 0
+ 1.065252 1 2 tcp 1040 ------- 1 0.0 3.0 34 65 0 0x0 0 0
- 1.065252 1 2 tcp 1040 ------- 1 0.0 3.0 34 65 0 0x0 0 0
r 1.065634 1 2 tcp 1040 ------- 1 0.0 3.0 31 62 0 0x0 0 0
r 1.065718 1 2 tcp 1040 ------- 1 0.0 3.0 32 63 0 0x0 0 0
+ 1.065787 1 2 tcp 1040 ------- 1 0.0 3.0 35 66 0 0x0 0 0
- 1.065787 1 2 tcp 1040 ------- 1 0.0 3.0 35 66 0 0x0 0 0
+ 1.06587 1 2 tcp 1040 ------- 1 0.0 3.0 36 67 0 0x0 0 0
- 1.06587 1 2 tcp 1040 ------- 1 0.0 3.0 36 67 0 0x0 0 0
r 1.066252 1 2 tcp 1040 ------- 1 0.0 3.0 33 64 0 0x0 0 0
r 1.066335 1 2 tcp 1040 ------- 1 0.0 3.0 34 65 0 0x0 0 0
+ 1.066404 1 2 tcp 1040 ------- 1 0.0 3.0 37 68 0 0x0 0 0
- 1.066404 1 2 tcp 1040 ------- 1 0.0 3.0 37 68 0 0x0 0 0
+ 1.066488 1 2 tcp 1040 ------- 1 0.0 3.0 38 69 0 0x0 0 0
- 1.066488 1 2 tcp 1040 ------- 1 0.0 3.0 38 69 0 0x0 0 0
r 1.06687 1 2 tcp 1040 ------- 1 0.0 3.0 35 66 0 0x0 0 0
r 1.066953 1 2 tcp 1040 ------- 1 0.0 3.0 36 67 0 0x0 0 0
+ 1.067022 1 2 tcp 1040 ------- 1 0.0 3.0 39 70 0 0x0 0 0
- 1.067022 1 2 tcp 1040 ------- 1 0.0 3.0 39 70 0 0x0 0 0
r 1.067488 1 2 tcp 1040 ------- 1 0.0 3.0 37 68 0 0x0 0 0
r 1.067571 1 2 tcp 1040 ------- 1 0.0 3.0 38 69 0 0x0 0 0
+ 1.06764 1 2 tcp 1040 ------- 1 0.0 3.0 40 71 0 0x0 0 0
- 1.06764 1 2 tcp 1040 ------- 1 0.0 3.0 40 71 0 0x0 0 0
r 1.068105 1 2 tcp 1040 ------- 1 0.0 3.0 39 70 0 0x0 0 0
+ 1.068258 1 2 tcp 1040 ------- 1 0.0 3.0 41 72 0 0x0 0 0
- 1.068258 1 2 tcp 1040 ------- 1 0.0 3.0 41 72 0 0x0 0 0
r 1.068723 1 2 tcp 1040 ------- 1 0.0 3.0 40 71 0 0x0 0 0
+ 1.068875 1 2 tcp 1040 ------- 1 0.0 3.0 42 73 0 0x0 0 0
- 1.068875 1 2 tcp 1040 ------- 1 0.0 3.0 42 73 0 0x0 0 0
r 1.069341 1 2 tcp 1040 ------- 1 0.0 3.0 41 72 0 0x0 0 0
+ 1.069493 1 2 tcp 1040 ------- 1 0.0 3.0 43 74 0 0x0 0 0
- 1.069493 1 2 tcp 1040 ------- 1 0.0 3.0 43 74 0 0x0 0 0
r 1.069959 1 2 tcp 1040 ------- 1 0.0 3.0 42 73 0 0x0 0 0
+ 1.070111 1 2 tcp 1040 ------- 1 0.0 3.0 44 75 0 0x0 0 0
- 1.070111 1 2 tcp 1040 ------- 1 0.0 3.0 44 75 0 0x0 0 0
r 1.070576 1 2 tcp 1040 ------- 1 0.0 3.0 43 74 0 0x0 0 0
+ 1.070729 1 2 tcp 1040 ------- 1 0.0 3.0 45 76 0 0x0 0 0
- 1.070729 1 2 tcp 1040 ------- 1 0.0 3.0 45 76 0 0x0 0 0
r 1.071194 1 2 tcp 1040 ------- 1 0.0 3.0 44 75 0 0x0 0 0
+ 1.071346 1 2 tcp 1040 ------- 1 0.0 3.0 46 77 0 0x0 0 0
- 1.071346 1 2 tcp 1040 ------- 1 0.0 3.0 46 77 0 0x0 0 0
r 1.071812 1 2 tcp 1040 ------- 1 0.0 3.0 45 76 0 0x0 0 0
+ 1.071964 1 2 tcp 1040 ------- 1 0.0 3.0 47 78 0 0x0 0 0
- 1.071964 1 2 tcp 1040 ------- 1 0.0 3.0 47 78 0 0x0 0 0
r 1.07243 1 2 tcp 1040 ------- 1 0.0 3.0 46 77 0 0x0 0 0
+ 1.072582 1 2 tcp 1040 ------- 1 0.0 3.0 48 79 0 0x0 0 0
- 1.072582 1 2 tcp 1040 ------- 1 0.0 3.0 48 79 0 0x0 0 0
r 1.073047 1 2 tcp 1040 ------- 1 0.0 3.0 47 78 0 0x0 0 0
+ 1.0732 1 2 tcp 1040 ------- 1 0.0 3.0 49 80 0 0x0 0 0
- 1.0732 1 2 tcp 1040 ------- 1 0.0 3.0 49 80 0 0x0 0 0
r 1.073665 1 2 tcp 1040 ------- 1 0.0 3.0 48 79 0 0x0 0 0
+ 1.073817 1 2 tcp 1040 ------- 1 0.0 3.0 50 81 0 0x0 0 0
- 1.073817 1 2 tcp 1040 ------- 1 0.0 3.0 50 81 0 0x0 0 0
r 1.074283 1 2 tcp 1040 ------- 1 0.0 3.0 49 80 0 0x0 0 0
r 1.0749 1 2 tcp 1040 ------- 1 0.0 3.0 50 81 0 0x0 0 0
+ 1.164202 2 1 ack 40 ------- 1 3.0 0.0 31 82 0 0x0 0 0
- 1.164202 2 1 ack 40 ------- 1 3.0 0.0 31 82 0 0x0 0 0
+ 1.16482 2 1 ack 40 ------- 1 3.0 0.0 32 83 0 0x0 0 0
- 1.16482 2 1 ack 40 ------- 1 3.0 0.0 32 83 0 0x0 0 0
r 1.165205 2 1 ack 40 ------- 1 3.0 0.0 31 82 0 0x0 0 0
+ 1.165438 2 1 ack 40 ------- 1 3.0 0.0 33 84 0 0x0 0 0
- 1.165438 2 1 ack 40 ------- 1 3.0 0.0 33 84 0 0x0 0 0
r 1.165823 2 1 ack 40 ------- 1 3.0 0.0 32 83 0 0x0 0 0
+ 1.166055 2 1 ack 40 ------- 1 3.0 0.0 34 85 0 0x0 0 0
- 1.166055 2 1 ack 40 ------- 1 3.0 0.0 34 85 0 0x0 0 0
r 1.166441 2 1 ack 40 ------- 1 3.0 0.0 33 84 0 0x0 0 0
+ 1.166673 2 1 ack 40 ------- 1 3.0 0.0 35 86 0 0x0 0 0
- 1.166673 2 1 ack 40 ------- 1 3.0 0.0 35 86 0 0x0 0 0
r 1.167059 2 1 ack 40 ------- 1 3.0 0.0 34 85 0 0x0 0 0
+ 1.167291 2 1 ack 40 ------- 1 3.0 0.0 36 87 0 0x0 0 0
- 1.167291 2 1 ack 40 ------- 1 3.0 0.0 36 87 0 0x0 0 0
r 1.167676 2 1 ack 40 ------- 1 3.0 0.0 35 86 0 0x0 0 0
+ 1.167909 2 1 ack 40 ------- 1 3.0 0.0 37 88 0 0x0 0 0
- 1.167909 2 1 ack 40 ------- 1 3.0 0.0 37 88 0 0x0 0 0
r 1.168294 2 1 ack 40 ------- 1 3.0 0.0 36 87 0 0x0 0 0
+ 1.168526 2 1 ack 40 ------- 1 3.0 0.0 38 89 0 0x0 0 0
- 1.168526 2 1 ack 40 ------- 1 3.0 0.0 38 89 0 0x0 0 0
r 1.168912 2 1 ack 40 ------- 1 3.0 0.0 37 88 0 0x0 0 0
+ 1.169144 2 1 ack 40 ------- 1 3.0 0.0 39 90 0 0x0 0 0
- 1.169144 2 1 ack 40 ------- 1 3.0 0.0 39 90 0 0x0 0 0
r 1.16953 2 1 ack 40 ------- 1 3.0 0.0 38 89 0 0x0 0 0
+ 1.169762 2 1 ack 40 ------- 1 3.0 0.0 40 91 0 0x0 0 0
- 1.169762 2 1 ack 40 ------- 1 3.0 0.0 40 91 0 0x0 0 0
r 1.170147 2 1 ack 40 ------- 1 3.0 0.0 39 90 0 0x0 0 0
+ 1.17038 2 1 ack 40 ------- 1 3.0 0.0 41 92 0 0x0 0 0
- 1.17038 2 1 ack 40 ------- 1 3.0 0.0 41 92 0 0x0 0 0
r 1.170765 2 1 ack 40 ------- 1 3.0 0.0 40 91 0 0x0 0 0
+ 1.170997 2 1 ack 40 ------- 1 3.0 0.0 42 93 0 0x0 0 0
- 1.170997 2 1 ack 40 ------- 1 3.0 0.0 42 93 0 0x0 0 0
r 1.171383 2 1 ack 40 ------- 1 3.0 0.0 41 92 0 0x0 0 0
+ 1.171615 2 1 ack 40 ------- 1 3.0 0.0 43 94 0 0x0 0 0
- 1.171615 2 1 ack 40 ------- 1 3.0 0.0 43 94 0 0x0 0 0
r 1.172 2 1 ack 40 ------- 1 3.0 0.0 42 93 0 0x0 0 0
+ 1.172233 2 1 ack 40 ------- 1 3.0 0.0 44 95 0 0x0 0 0
- 1.172233 2 1 ack 40 ------- 1 3.0 0.0 44 95 0 0x0 0 0
r 1.172618 2 1 ack 40 ------- 1 3.0 0.0 43 94 0 0x0 0 0
+ 1.17285 2 1 ack 40 ------- 1 3.0 0.0 45 96 0 0x0 0 0
- 1.17285 2 1 ack 40 ------- 1 3.0 0.0 45 96 0 0x0 0 0
r 1.173236 2 1 ack 40 ------- 1 3.0 0.0 44 95 0 0x0 0 0
+ 1.173468 2 1 ack 40 ------- 1 3.0 0.0 46 97 0 0x0 0 0
- 1.173468 2 1 ack 40 ------- 1 3.0 0.0 46 97 0 0x0 0 0
r 1.173854 2 1 ack 40 ------- 1 3.0 0.0 45 96 0 0x0 0 0
+ 1.174086 2 1 ack 40 ------- 1 3.0 0.0 47 98 0 0x0 0 0
- 1.174086 2 1 ack 40 ------- 1 3.0 0.0 47 98 0 0x0 0 0
r 1.174471 2 1 ack 40 ------- 1 3.0 0.0 46 97 0 0x0 0 0
+ 1.174704 2 1 ack 40 ------- 1 3.0 0.0 48 99 0 0x0 0 0
- 1.174704 2 1 ack 40 ------- 1 3.0 0.0 48 99 0 0x0 0 0
r 1.175089 2 1 ack 40 ------- 1 3.0 0.0 47 98 0 0x0 0 0
+ 1.175321 2 1 ack 40 ------- 1 3.0 0.0 49 100 0 0x0 0 0
- 1.175321 2 1 ack 40 ------- 1 3.0 0.0 49 100 0 0x0 0 0
r 1.175707 2 1 ack 40 ------- 1 3.0 0.0 48 99 0 0x0 0 0
+ 1.175939 2 1 ack 40 ------- 1 3.0 0.0 50 101 0 0x0 0 0
- 1.175939 2 1 ack 40 ------- 1 3.0 0.0 50 101 0 0x0 0 0
r 1.176325 2 1 ack 40 ------- 1 3.0 0.0 49 100 0 0x0 0 0
+ 1.176384 1 2 tcp 1040 ------- 1 0.0 3.0 51 102 0 0x0 0 0
- 1.176384 1 2 tcp 1040 ------- 1 0.0 3.0 51 102 0 0x0 0 0
r 1.176942 2 1 ack 40 ------- 1 3.0 0.0 50 101 0 0x0 0 0
+ 1.177001 1 2 tcp 1040 ------- 1 0.0 3.0 52 103 0 0x0 0 0
- 1.177001 1 2 tcp 1040 ------- 1 0.0 3.0 52 103 0 0x0 0 0
r 1.177467 1 2 tcp 1040 ------- 1 0.0 3.0 51 102 0 0x0 0 0
+ 1.177619 1 2 tcp 1040 ------- 1 0.0 3.0 53 104 0 0x0 0 0
- 1.177619 1 2 tcp 1040 ------- 1 0.0 3.0 53 104 0 0x0 0 0
r 1.178085 1 2 tcp 1040 ------- 1 0.0 3.0 52 103 0 0x0 0 0
+ 1.178237 1 2 tcp 1040 ------- 1 0.0 3.0 54 105 0 0x0 0 0
- 1.178237 1 2 tcp 1040 ------- 1 0.0 3.0 54 105 0 0x0 0 0
r 1.178702 1 2 tcp 1040 ------- 1 0.0 3.0 53 104 0 0x0 0 0
+ 1.178855 1 2 tcp 1040 ------- 1 0.0 3.0 55 106 0 0x0 0 0
- 1.178855 1 2 tcp 1040 ------- 1 0.0 3.0 55 106 0 0x0 0 0
r 1.17932 1 2 tcp 1040 ------- 1 0.0 3.0 54 105 0 0x0 0 0
+ 1.179472 1 2 tcp 1040 ------- 1 0.0 3.0 56 107 0 0x0 0 0
- 1.179472 1 2 tcp 1040 ------- 1 0.0 3.0 56 107 0 0x0 0 0
r 1.179938 1 2 tcp 1040 ------- 1 0.0 3.0 55 106 0 0x0 0 0
+ 1.18009 1 2 tcp 1040 ------- 1 0.0 3.0 57 108 0 0x0 0 0
- 1.18009 1 2 tcp 1040 ------- 1 0.0 3.0 57 108 0 0x0 0 0
r 1.180556 1 2 tcp 1040 ------- 1 0.0 3.0 56 107 0 0x0 0 0
+ 1.180708 1 2 tcp 1040 ------- 1 0.0 3.0 58 109 0 0x0 0 0
- 1.180708 1 2 tcp 1040 ------- 1 0.0 3.0 58 109 0 0x0 0 0
r 1.181173 1 2 tcp 1040 ------- 1 0.0 3.0 57 108 0 0x0 0 0
+ 1.181326 1 2 tcp 1040 ------- 1 0.0 3.0 59 110 0 0x0 0 0
- 1.181326 1 2 tcp 1040 ------- 1 0.0 3.0 59 110 0 0x0 0 0
r 1.181791 1 2 tcp 1040 ------- 1 0.0 3.0 58 109 0 0x0 0 0
+ 1.181943 1 2 tcp 1040 ------- 1 0.0 3.0 60 111 0 0x0 0 0
- 1.181943 1 2 tcp 1040 ------- 1 0.0 3.0 60 111 0 0x0 0 0
r 1.182409 1 2 tcp 1040 ------- 1 0.0 3.0 59 110 0 0x0 0 0
+ 1.182561 1 2 tcp 1040 ------- 1 0.0 3.0 61 112 0 0x0 0 0
- 1.182561 1 2 tcp 1040 ------- 1 0.0 3.0 61 112 0 0x0 0 0
r 1.183026 1 2 tcp 1040 ------- 1 0.0 3.0 60 111 0 0x0 0 0
+ 1.183179 1 2 tcp 1040 ------- 1 0.0 3.0 62 113 0 0x0 0 0
- 1.183179 1 2 tcp 1040 ------- 1 0.0 3.0 62 113 0 0x0 0 0
r 1.183644 1 2 tcp 1040 ------- 1 0.0 3.0 61 112 0 0x0 0 0
+ 1.183796 1 2 tcp 1040 ------- 1 0.0 3.0 63 114 0 0x0 0 0
- 1.183796 1 2 tcp 1040 ------- 1 0.0 3.0 63 114 0 0x0 0 0
r 1.184262 1 2 tcp 1040 ------- 1 0.0 3.0 62 113 0 0x0 0 0
+ 1.184414 1 2 tcp 1040 ------- 1 0.0 3.0 64 115 0 0x0 0 0
- 1.184414 1 2 tcp 1040 ------- 1 0.0 3.0 64 115 0 0x0 0 0
r 1.18488 1 2 tcp 1040 ------- 1 0.0 3.0 63 114 0 0x0 0 0
+ 1.185032 1 2 tcp 1040 ------- 1 0.0 3.0 65 116 0 0x0 0 0
- 1.185032 1 2 tcp 1040 ------- 1 0.0 3.0 65 116 0 0x0 0 0
r 1.185497 1 2 tcp 1040 ------- 1 0.0 3.0 64 115 0 0x0 0 0
+ 1.18565 1 2 tcp 1040 ------- 1 0.0 3.0 66 117 0 0x0 0 0
- 1.18565 1 2 tcp 1040 ------- 1 0.0 3.0 66 117 0 0x0 0 0
r 1.186115 1 2 tcp 1040 ------- 1 0.0 3.0 65 116 0 0x0 0 0
+ 1.186267 1 2 tcp 1040 ------- 1 0.0 3.0 67 118 0 0x0 0 0
- 1.186267 1 2 tcp 1040 ------- 1 0.0 3.0 67 118 0 0x0 0 0
r 1.186733 1 2 tcp 1040 ------- 1 0.0 3.0 66 117 0 0x0 0 0
+ 1.186885 1 2 tcp 1040 ------- 1 0.0 3.0 68 119 0 0x0 0 0
- 1.186885 1 2 tcp 1040 ------- 1 0.0 3.0 68 119 0 0x0 0 0
r 1.187351 1 2 tcp 1040 ------- 1 0.0 3.0 67 118 0 0x0 0 0
+ 1.187503 1 2 tcp 1040 ------- 1 0.0 3.0 69 120 0 0x0 0 0
- 1.187503 1 2 tcp 1040 ------- 1 0.0 3.0 69 120 0 0x0 0 0
r 1.187968 1 2 tcp 1040 ------- 1 0.0 3.0 68 119 0 0x0 0 0
+ 1.188121 1 2 tcp 1040 ------- 1 0.0 3.0 70 121 0 0x0 0 0
- 1.188121 1 2 tcp 1040 ------- 1 0.0 3.0 70 121 0 0x0 0 0
r 1.188586 1 2 tcp 1040 ------- 1 0.0 3.0 69 120 0 0x0 0 0
r 1.189204 1 2 tcp 1040 ------- 1 0.0 3.0 70 121 0 0x0 0 0
+ 1.276035 2 1 ack 40 ------- 1 3.0 0.0 51 122 0 0x0 0 0
- 1.276035 2 1 ack 40 ------- 1 3.0 0.0 51 122 0 0x0 0 0
+ 1.276652 2 1 ack 40 ------- 1 3.0 0.0 52 123 0 0x0 0 0
- 1.276652 2 1 ack 40 ------- 1 3.0 0.0 52 123 0 0x0 0 0
r 1.277038 2 1 ack 40 ------- 1 3.0 0.0 51 122 0 0x0 0 0
r 1.277656 2 1 ack 40 ------- 1 3.0 0.0 52 123 0 0x0 0 0
+ 1.277888 2 1 ack 40 ------- 1 3.0 0.0 52 124 0 0x0 0 0
- 1.277888 2 1 ack 40 ------- 1 3.0 0.0 52 124 0 0x0 0 0
+ 1.278506 2 1 ack 40 ------- 1 3.0 0.0 52 125 0 0x0 0 0
- 1.278506 2 1 ack 40 ------- 1 3.0 0.0 52 125 0 0x0 0 0
r 1.278891 2 1 ack 40 ------- 1 3.0 0.0 52 124 0 0x0 0 0
+ 1.279123 2 1 ack 40 ------- 1 3.0 0.0 52 126 0 0x0 0 0
- 1.279123 2 1 ack 40 ------- 1 3.0 0.0 52 126 0 0x0 0 0
r 1.279509 2 1 ack 40 ------- 1 3.0 0.0 52 125 0 0x0 0 0
+ 1.279741 2 1 ack 40 ------- 1 3.0 0.0 52 127 0 0x0 0 0
- 1.279741 2 1 ack 40 ------- 1 3.0 0.0 52 127 0 0x0 0 0
r 1.280126 2 1 ack 40 ------- 1 3.0 0.0 52 126 0 0x0 0 0
+ 1.280359 2 1 ack 40 ------- 1 3.0 0.0 52 128 0 0x0 0 0
- 1.280359 2 1 ack 40 ------- 1 3.0 0.0 52 128 0 0x0 0 0
r 1.280744 2 1 ack 40 ------- 1 3.0 0.0 52 127 0 0x0 0 0
+ 1.280976 2 1 ack 40 ------- 1 3.0 0.0 52 129 0 0x0 0 0
- 1.280976 2 1 ack 40 ------- 1 3.0 0.0 52 129 0 0x0 0 0
r 1.281362 2 1 ack 40 ------- 1 3.0 0.0 52 128 0 0x0 0 0
+ 1.281594 2 1 ack 40 ------- 1 3.0 0.0 52 130 0 0x0 0 0
- 1.281594 2 1 ack 40 ------- 1 3.0 0.0 52 130 0 0x0 0 0
r 1.28198 2 1 ack 40 ------- 1 3.0 0.0 52 129 0 0x0 0 0
+ 1.282212 2 1 ack 40 ------- 1 3.0 0.0 52 131 0 0x0 0 0
- 1.282212 2 1 ack 40 ------- 1 3.0 0.0 52 131 0 0x0 0 0
r 1.282597 2 1 ack 40 ------- 1 3.0 0.0 52 130 0 0x0 0 0
+ 1.28283 2 1 ack 40 ------- 1 3.0 0.0 52 132 0 0x0 0 0
- 1.28283 2 1 ack 40 ------- 1 3.0 0.0 52 132 0 0x0 0 0
r 1.283215 2 1 ack 40 ------- 1 3.0 0.0 52 131 0 0x0 0 0
+ 1.283447 2 1 ack 40 ------- 1 3.0 0.0 52 133 0 0x0 0 0
- 1.283447 2 1 ack 40 ------- 1 3.0 0.0 52 133 0 0x0 0 0
r 1.283833 2 1 ack 40 ------- 1 3.0 0.0 52 132 0 0x0 0 0
+ 1.284065 2 1 ack 40 ------- 1 3.0 0.0 52 134 0 0x0 0 0
- 1.284065 2 1 ack 40 ------- 1 3.0 0.0 52 134 0 0x0 0 0
r 1.284451 2 1 ack 40 ------- 1 3.0 0.0 52 133 0 0x0 0 0
+ 1.284683 2 1 ack 40 ------- 1 3.0 0.0 52 135 0 0x0 0 0
- 1.284683 2 1 ack 40 ------- 1 3.0 0.0 52 135 0 0x0 0 0
r 1.285068 2 1 ack 40 ------- 1 3.0 0.0 52 134 0 0x0 0 0
+ 1.285301 2 1 ack 40 ------- 1 3.0 0.0 52 136 0 0x0 0 0
- 1.285301 2 1 ack 40 ------- 1 3.0 0.0 52 136 0 0x0 0 0
r 1.285686 2 1 ack 40 ------- 1 3.0 0.0 52 135 0 0x0 0 0
+ 1.285918 2 1 ack 40 ------- 1 3.0 0.0 52 137 0 0x0 0 0
- 1.285918 2 1 ack 40 ------- 1 3.0 0.0 52 137 0 0x0 0 0
r 1.286304 2 1 ack 40 ------- 1 3.0 0.0 52 136 0 0x0 0 0
+ 1.286536 2 1 ack 40 ------- 1 3.0 0.0 52 138 0 0x0 0 0
- 1.286536 2 1 ack 40 ------- 1 3.0 0.0 52 138 0 0x0 0 0
r 1.286922 2 1 ack 40 ------- 1 3.0 0.0 52 137 0 0x0 0 0
+ 1.287154 2 1 ack 40 ------- 1 3.0 0.0 52 139 0 0x0 0 0
- 1.287154 2 1 ack 40 ------- 1 3.0 0.0 52 139 0 0x0 0 0
r 1.287539 2 1 ack 40 ------- 1 3.0 0.0 52 138 0 0x0 0 0
+ 1.287772 2 1 ack 40 ------- 1 3.0 0.0 52 140 0 0x0 0 0
- 1.287772 2 1 ack 40 ------- 1 3.0 0.0 52 140 0 0x0 0 0
r 1.288157 2 1 ack 40 ------- 1 3.0 0.0 52 139 0 0x0 0 0
+ 1.288216 1 2 tcp 1040 ------- 1 0.0 3.0 71 141 0 0x0 0 0
- 1.288216 1 2 tcp 1040 ------- 1 0.0 3.0 71 141 0 0x0 0 0
r 1.288775 2 1 ack 40 ------- 1 3.0 0.0 52 140 0 0x0 0 0
+ 1.288834 1 2 tcp 1040 ------- 1 0.0 3.0 72 142 0 0x0 0 0
- 1.288834 1 2 tcp 1040 ------- 1 0.0 3.0 72 142 0 0x0 0 0
r 1.289299 1 2 tcp 1040 ------- 1 0.0 3.0 71 141 0 0x0 0 0
r 1.289917 1 2 tcp 1040 ------- 1 0.0 3.0 72 142 0 0x0 0 0
+ 1.291305 1 2 tcp 1040 ---A--- 1 0.0 3.0 53 143 0 0x0 0 0
- 1.291305 1 2 tcp 1040 ---A--- 1 0.0 3.0 53 143 0 0x0 0 0
r 1.292388 1 2 tcp 1040 ---A--- 1 0.0 3.0 53 143 0 0x0 0 0
+ 1.387867 2 1 ack 40 ------- 1 3.0 0.0 52 144 0 0x0 0 0
- 1.387867 2 1 ack 40 ------- 1 3.0 0.0 52 144 0 0x0 0 0
+ 1.388485 2 1 ack 40 ------- 1 3.0 0.0 52 145 0 0x0 0 0
- 1.388485 2 1 ack 40 ------- 1 3.0 0.0 52 145 0 0x0 0 0
r 1.38887 2 1 ack 40 ------- 1 3.0 0.0 52 144 0 0x0 0 0
r 1.389488 2 1 ack 40 ------- 1 3.0 0.0 52 145 0 0x0 0 0
+ 1.390956 2 1 ack 40 ------- 1 3.0 0.0 72 146 0 0x0 0 0
- 1.390956 2 1 ack 40 ------- 1 3.0 0.0 72 146 0 0x0 0 0
r 1.391959 2 1 ack 40 ------- 1 3.0 0.0 72 146 0 0x0 0 0
+ 1.403137 1 2 tcp 1040 ------- 1 0.0 3.0 73 147 0 0x0 0 0
- 1.403137 1 2 tcp 1040 ------- 1 0.0 3.0 73 147 0 0x0 0 0
+ 1.40322 1 2 tcp 1040 ------- 1 0.0 3.0 74 148 0 0x0 0 0
- 1.40322 1 2 tcp 1040 ------- 1 0.0 3.0 74 148 0 0x0 0 0
r 1.40422 1 2 tcp 1040 ------- 1 0.0 3.0 73 147 0 0x0 0 0
r 1.404304 1 2 tcp 1040 ------- 1 0.0 3.0 74 148 0 0x0 0 0
+ 1.502788 2 1 ack 40 ------- 1 3.0 0.0 73 149 0 0x0 0 0
- 1.502788 2 1 ack 40 ------- 1 3.0 0.0 73 149 0 0x0 0 0
+ 1.503406 2 1 ack 40 ------- 1 3.0 0.0 74 150 0 0x0 0 0
- 1.503406 2 1 ack 40 ------- 1 3.0 0.0 74 150 0 0x0 0 0
r 1.503791 2 1 ack 40 ------- 1 3.0 0.0 73 149 0 0x0 0 0
r 1.504409 2 1 ack 40 ------- 1 3.0 0.0 74 150 0 0x0 0 0
+ 1.51497 1 2 tcp 1040 ------- 1 0.0 3.0 75 151 0 0x0 0 0
- 1.51497 1 2 tcp 1040 ------- 1 0.0 3.0 75 151 0 0x0 0 0
+ 1.515053 1 2 tcp 1040 ------- 1 0.0 3.0 76 152 0 0x0 0 0
- 1.515053 1 2 tcp 1040 ------- 1 0.0 3.0 76 152 0 0x0 0 0
+ 1.515587 1 2 tcp 1040 ------- 1 0.0 3.0 77 153 0 0x0 0 0
- 1.515587 1 2 tcp 1040 ------- 1 0.0 3.0 77 153 0 0x0 0 0
+ 1.515671 1 2 tcp 1040 ------- 1 0.0 3.0 78 154 0 0x0 0 0
- 1.515671 1 2 tcp 1040 ------- 1 0.0 3.0 78 154 0 0x0 0 0
r 1.516053 1 2 tcp 1040 ------- 1 0.0 3.0 75 151 0 0x0 0 0
r 1.516136 1 2 tcp 1040 ------- 1 0.0 3.0 76 152 0 0x0 0 0
r 1.516671 1 2 tcp 1040 ------- 1 0.0 3.0 77 153 0 0x0 0 0
r 1.516754 1 2 tcp 1040 ------- 1 0.0 3.0 78 154 0 0x0 0 0
+ 1.614621 2 1 ack 40 ------- 1 3.0 0.0 75 155 0 0x0 0 0
- 1.614621 2 1 ack 40 ------- 1 3.0 0.0 75 155 0 0x0 0 0
+ 1.615238 2 1 ack 40 ------- 1 3.0 0.0 76 156 0 0x0 0 0
- 1.615238 2 1 ack 40 ------- 1 3.0 0.0 76 156 0 0x0 0 0
r 1.615624 2 1 ack 40 ------- 1 3.0 0.0 75 155 0 0x0 0 0
+ 1.615856 2 1 ack 40 ------- 1 3.0 0.0 77 157 0 0x0 0 0
- 1.615856 2 1 ack 40 ------- 1 3.0 0.0 77 157 0 0x0 0 0
r 1.616241 2 1 ack 40 ------- 1 3.0 0.0 76 156 0 0x0 0 0
+ 1.616474 2 1 ack 40 ------- 1 3.0 0.0 78 158 0 0x0 0 0
- 1.616474 2 1 ack 40 ------- 1 3.0 0.0 78 158 0 0x0 0 0
r 1.616859 2 1 ack 40 ------- 1 3.0 0.0 77 157 0 0x0 0 0
r 1.617477 2 1 ack 40 ------- 1 3.0 0.0 78 158 0 0x0 0 0
+ 1.626802 1 2 tcp 1040 ------- 1 0.0 3.0 79 159 0 0x0 0 0
- 1.626802 1 2 tcp 1040 ------- 1 0.0 3.0 79 159 0 0x0 0 0
+ 1.626885 1 2 tcp 1040 ------- 1 0.0 3.0 80 160 0 0x0 0 0
- 1.626885 1 2 tcp 1040 ------- 1 0.0 3.0 80 160 0 0x0 0 0
+ 1.62742 1 2 tcp 1040 ------- 1 0.0 3.0 81 161 0 0x0 0 0
- 1.62742 1 2 tcp 1040 ------- 1 0.0 3.0 81 161 0 0x0 0 0
+ 1.627503 1 2 tcp 1040 ------- 1 0.0 3.0 82 162 0 0x0 0 0
- 1.627503 1 2 tcp 1040 ------- 1 0.0 3.0 82 162 0 0x0 0 0
r 1.627885 1 2 tcp 1040 ------- 1 0.0 3.0 79 159 0 0x0 0 0
r 1.627968 1 2 tcp 1040 ------- 1 0.0 3.0 80 160 0 0x0 0 0
+ 1.628037 1 2 tcp 1040 ------- 1 0.0 3.0 83 163 0 0x0 0 0
- 1.628037 1 2 tcp 1040 ------- 1 0.0 3.0 83 163 0 0x0 0 0
+ 1.628121 1 2 tcp 1040 ------- 1 0.0 3.0 84 164 0 0x0 0 0
- 1.628121 1 2 tcp 1040 ------- 1 0.0 3.0 84 164 0 0x0 0 0
r 1.628503 1 2 tcp 1040 ------- 1 0.0 3.0 81 161 0 0x0 0 0
r 1.628586 1 2 tcp 1040 ------- 1 0.0 3.0 82 162 0 0x0 0 0
+ 1.628655 1 2 tcp 1040 ------- 1 0.0 3.0 85 165 0 0x0 0 0
- 1.628655 1 2 tcp 1040 ------- 1 0.0 3.0 85 165 0 0x0 0 0
+ 1.628738 1 2 tcp 1040 ------- 1 0.0 3.0 86 166 0 0x0 0 0
- 1.628738 1 2 tcp 1040 ------- 1 0.0 3.0 86 166 0 0x0 0 0
r 1.629121 1 2 tcp 1040 ------- 1 0.0 3.0 83 163 0 0x0 0 0
r 1.629204 1 2 tcp 1040 ------- 1 0.0 3.0 84 164 0 0x0 0 0
r 1.629738 1 2 tcp 1040 ------- 1 0.0 3.0 85 165 0 0x0 0 0
r 1.629822 1 2 tcp 1040 ------- 1 0.0 3.0 86 166 0 0x0 0 0
+ 1.726453 2 1 ack 40 ------- 1 3.0 0.0 79 167 0 0x0 0 0
- 1.726453 2 1 ack 40 ------- 1 3.0 0.0 79 167 0 0x0 0 0
+ 1.727071 2 1 ack 40 ------- 1 3.0 0.0 80 168 0 0x0 0 0
- 1.727071 2 1 ack 40 ------- 1 3.0 0.0 80 168 0 0x0 0 0
r 1.727456 2 1 ack 40 ------- 1 3.0 0.0 79 167 0 0x0 0 0
+ 1.727688 2 1 ack 40 ------- 1 3.0 0.0 81 169 0 0x0 0 0
- 1.727688 2 1 ack 40 ------- 1 3.0 0.0 81 169 0 0x0 0 0
r 1.728074 2 1 ack 40 ------- 1 3.0 0.0 80 168 0 0x0 0 0
+ 1.728306 2 1 ack 40 ------- 1 3.0 0.0 82 170 0 0x0 0 0
- 1.728306 2 1 ack 40 ------- 1 3.0 0.0 82 170 0 0x0 0 0
r 1.728692 2 1 ack 40 ------- 1 3.0 0.0 81 169 0 0x0 0 0
+ 1.728924 2 1 ack 40 ------- 1 3.0 0.0 83 171 0 0x0 0 0
- 1.728924 2 1 ack 40 ------- 1 3.0 0.0 83 171 0 0x0 0 0
r 1.729309 2 1 ack 40 ------- 1 3.0 0.0 82 170 0 0x0 0 0
+ 1.729542 2 1 ack 40 ------- 1 3.0 0.0 84 172 0 0x0 0 0
- 1.729542 2 1 ack 40 ------- 1 3.0 0.0 84 172 0 0x0 0 0
r 1.729927 2 1 ack 40 ------- 1 3.0 0.0 83 171 0 0x0 0 0
+ 1.730159 2 1 ack 40 ------- 1 3.0 0.0 85 173 0 0x0 0 0
- 1.730159 2 1 ack 40 ------- 1 3.0 0.0 85 173 0 0x0 0 0
r 1.730545 2 1 ack 40 ------- 1 3.0 0.0 84 172 0 0x0 0 0
+ 1.730777 2 1 ack 40 ------- 1 3.0 0.0 86 174 0 0x0 0 0
- 1.730777 2 1 ack 40 ------- 1 3.0 0.0 86 174 0 0x0 0 0
r 1.731163 2 1 ack 40 ------- 1 3.0 0.0 85 173 0 0x0 0 0
r 1.73178 2 1 ack 40 ------- 1 3.0 0.0 86 174 0 0x0 0 0